#!/bin/sh

# Author: Jarrod Cameron (z5210220)
# Date:   01/03/19  9:14

# Bugs:
# - Can't toggle to/from hdmi output

BACKGROUND=689d6a
FOREGROUND=282828

MIXER="pulse"
SCONTROL="Master"

# Toggle the output
# 'speakers' -> 'headphones' -> 'hdmi'
#    ^                             |
#     \----------------------------v
toggle_output () {
  output=$(pacmd list-sinks | grep "active port:" | awk -F" " ' NR==1 { print $3 } ')

  if [ "$output" = "<analog-output-headphones>" ]; then
    # Speaker is now sink
    pacmd set-sink-port 0 analog-output-speaker

  elif [ "$output" = "<analog-output-speaker>" ]; then
    # Headphones is now sink
    pacmd set-sink-port 0 analog-output-headphones

  else
    # Yeah no idea...
    # Will cause i3blocks to display error
    echo "ERROR: Problem occured when toggling output!"
    exit 33

  fi
}

get_volume() {
  echo "$(pacmd list-sinks | grep "^\s*volume:" | grep -o "[0-9]*%" \
        | head -1 | sed 's/%//g')"
}

# Toggle mute...
toggle_mute() {
  amixer -q -D "$MIXER" sset "$SCONTROL" toggle
}

# Change the volume
# $VOLUME_DELTA is the change in volume
update_volume() {
  amixer -q -D "$MIXER" sset "$SCONTROL" "$VOLUME_DELTA"
}

# Forces current output to be unmuted
force_unmute() {
  amixer -q -D "$MIXER" sset "$SCONTROL" unmute
}

VOLUME_DELTA=""
case $BLOCK_BUTTON in
  4)  VOLUME_DELTA="1%+" ;; # Scroll up
  5)  VOLUME_DELTA="1%-" ;; # Scroll down
  10) VOLUME_DELTA="5%+" ;; # Vol up btn
  11) VOLUME_DELTA="5%-" ;; # Vol down btn
esac

case "$BLOCK_BUTTON" in
  1)  toggle_output                 ;; # Left click
  2)  toggle_mute                   ;; # Scroll click
  3)  toggle_mute                   ;; # Right click
  4)  update_volume                 ;; # Scroll up
  5)  update_volume                 ;; # Scroll down
  10) force_unmute ; update_volume  ;; # Volume up btn
  11) force_unmute ; update_volume  ;; # Volume down bt
esac

OUTPUT="$(pacmd list-sinks | grep "^\sactive port:" | awk '{print $3}')"
case "$OUTPUT" in
  "<analog-output-headphones>") OUTPUT="Headphones:" ;;
  "<analog-output-speaker>")    OUTPUT="Speakers:"   ;;
  "<hdmi-output-0>")            OUTPUT="HDMI: "      ;;
  *) notify-send "ERROR (vol2): unknown output ""$OUTPUT" ; exit 1 ;;
esac

MUTED="$(pacmd list-sinks | grep '^\s*muted:' | awk '{print $2}')"

if [ "$MUTED" = "yes" ]; then
  TEXT="$OUTPUT MUTE"
else
  TEXT="$OUTPUT $(get_volume)""%"
fi

echo "<span background='#${BACKGROUND}' foreground='#${FOREGROUND}'> $TEXT </span>"
echo "<span background='#${BACKGROUND}' foreground='#${FOREGROUND}'> $TEXT </span>"
